LAMMPS data file via write_data, version 23 Jun 2022, timestep = 6000000

11914 atoms
5 atom types
4614 bonds
1 bond types
2307 angles
1 angle types

0 31.5 xlo xhi
0 34.5 ylo yhi
-53.1561 51.8544 zlo zhi

Masses

1 15.9994
2 1.0079
3 12.001
4 35.453
5 55.845

Bond Coeffs # harmonic

1 100 1

Angle Coeffs # harmonic

1 100 109.47

Atoms # full

9420 2311 3 -7.410216661998072e-06 0 0 -51.4645 0 0 0
9421 2311 3 -7.821507672410394e-06 0 1.431975 -51.4645 0 0 0
9422 2311 3 -8.490231999152823e-06 1.240139 2.147984 -51.4645 0 0 0
9423 2311 3 -8.319043754328414e-06 1.240139 3.579959 -51.4645 0 0 0
9424 2311 3 -7.817465691749958e-06 2.480279 0 -51.4645 0 0 0
9425 2311 3 -8.430092929159087e-06 2.480279 1.431975 -51.4645 0 0 0
9426 2311 3 -8.18046376790082e-06 3.720418 2.147984 -51.4645 0 0 0
9427 2311 3 -8.28591943706079e-06 3.720418 3.579959 -51.4645 0 0 0
9428 2311 3 -6.562524875191809e-06 4.960558 0 -51.4645 0 0 0
9429 2311 3 -7.109155757208142e-06 4.960558 1.431975 -51.4645 0 0 0
9430 2311 3 -6.111404122937584e-06 6.200697 2.147984 -51.4645 0 0 0
9431 2311 3 -6.467400512942484e-06 6.200697 3.579959 -51.4645 0 0 0
9432 2311 3 -3.80294865238869e-06 7.440836 0 -51.4645 0 0 0
9433 2311 3 -4.368740519417239e-06 7.440836 1.431975 -51.4645 0 0 0
9434 2311 3 -6.99666896718565e-06 0 4.295968 -51.4645 0 0 0
9435 2311 3 -5.748896168050287e-06 0 5.727943 -51.4645 0 0 0
9436 2311 3 -6.278651084361374e-06 1.240139 6.443952 -51.4645 0 0 0
9438 2311 3 -8.388775683909067e-06 2.480279 4.295968 -51.4645 0 0 0
9439 2311 3 -7.56396764515808e-06 2.480279 5.727943 -51.4645 0 0 0
9440 2311 3 -7.038527475865515e-06 3.720418 6.443952 -51.4645 0 0 0
9442 2311 3 -7.505609869010003e-06 4.960558 4.295968 -51.4645 0 0 0
9443 2311 3 -7.113903539025611e-06 4.960558 5.727943 -51.4645 0 0 0
9444 2311 3 -6.196316880413625e-06 6.200697 6.443952 -51.4645 0 0 0
9446 2311 3 -5.409969803067819e-06 7.440836 4.295968 -51.4645 0 0 0
9447 2311 3 -5.585250679342596e-06 7.440836 5.727943 -51.4645 0 0 0
9461 2311 3 7.609499448063439e-06 2.480279 4.295968 -48.0833 0 0 0
9462 2311 3 9.428940843604646e-06 2.480279 2.863993 -48.0833 0 0 0
9463 2311 3 1.17141291787885e-05 1.240139 2.147984 -48.0833 0 0 0
9464 2311 3 9.782564656746138e-06 1.240139 0.715966 -48.0833 0 0 0
9465 2311 3 2.69869453735712e-06 4.960558 4.295968 -48.0833 0 0 0
9466 2311 3 3.588094776363065e-06 4.960558 2.863993 -48.0833 0 0 0
9467 2311 3 7.227705589152659e-06 3.720418 2.147984 -48.0833 0 0 0
9468 2311 3 7.625275817387802e-06 3.720418 0.715966 -48.0833 0 0 0
9469 2311 3 -1.06261242223449e-06 7.440836 4.295968 -48.0833 0 0 0
9470 2311 3 -2.622404256473383e-06 7.440836 2.863993 -48.0833 0 0 0
9471 2311 3 7.468419545776149e-07 6.200697 2.147984 -48.0833 0 0 0
9472 2311 3 2.374669751478776e-06 6.200697 0.715966 -48.0833 0 0 0
9473 2311 3 1.230122229379882e-05 0 4.295968 -48.0833 0 0 0
9474 2311 3 1.356139559678754e-05 0 2.863993 -48.0833 0 0 0
9477 2311 3 5.470342015040742e-06 1.240139 6.443952 -48.0833 0 0 0
9478 2311 3 8.673827747717005e-06 1.240139 5.011934 -48.0833 0 0 0
9481 2311 3 2.615984536991773e-06 3.720418 6.443952 -48.0833 0 0 0
9482 2311 3 4.195918215593932e-06 3.720418 5.011934 -48.0833 0 0 0
9485 2311 3 3.15176899317242e-06 6.200697 6.443952 -48.0833 0 0 0
9486 2311 3 1.196986509110545e-06 6.200697 5.011934 -48.0833 0 0 0
9489 2311 3 8.086099551406075e-06 2.480279 0 -48.0833 0 0 0
9490 2311 3 5.985535880802752e-06 4.960558 0 -48.0833 0 0 0
9491 2311 3 6.322162572071162e-07 7.440836 0 -48.0833 0 0 0
9492 2311 3 7.604192587770611e-06 0 0 -48.0833 0 0 0
10252 2311 3 9.950245087694523e-05 0 0 -44.7023 0 0 0
10253 2311 3 0.0001103093638947489 0 1.431846 -44.7023 0 0 0
10254 2311 3 0.0001273011520935168 1.240139 2.147984 -44.7023 0 0 0
10255 2311 3 0.0001244605979391683 1.240139 3.579959 -44.7023 0 0 0
10256 2311 3 0.0001149600547978984 2.480279 0 -44.7023 0 0 0
10257 2311 3 0.0001281860522871769 2.480279 1.431846 -44.7023 0 0 0
10258 2311 3 0.0001229625689714115 3.720418 2.147984 -44.7023 0 0 0
10259 2311 3 0.0001214354603978972 3.720418 3.579959 -44.7023 0 0 0
10260 2311 3 9.148425625887822e-05 4.960558 0 -44.7023 0 0 0
10261 2311 3 0.0001003583487692828 4.960558 1.431846 -44.7023 0 0 0
10262 2311 3 7.518044530158842e-05 6.200697 2.147984 -44.7023 0 0 0
10263 2311 3 7.877018682516277e-05 6.200697 3.579959 -44.7023 0 0 0
10264 2311 3 3.385479461296276e-05 7.440836 0 -44.7023 0 0 0
10265 2311 3 3.978037429725445e-05 7.440836 1.431846 -44.7023 0 0 0
10266 2311 3 0.000100106098371461 0 4.295968 -44.7023 0 0 0
10267 2311 3 7.998344363717461e-05 0 5.727814 -44.7023 0 0 0
10268 2311 3 8.85601190549321e-05 1.240139 6.443952 -44.7023 0 0 0
10270 2311 3 0.0001241544025164386 2.480279 4.295968 -44.7023 0 0 0
10271 2311 3 0.0001066008591844647 2.480279 5.727814 -44.7023 0 0 0
10272 2311 3 9.093816491415582e-05 3.720418 6.443952 -44.7023 0 0 0
10274 2311 3 0.0001002773971046304 4.960558 4.295968 -44.7023 0 0 0
10275 2311 3 8.89077051921036e-05 4.960558 5.727814 -44.7023 0 0 0
10276 2311 3 7.015736652630163e-05 6.200697 6.443952 -44.7023 0 0 0
10278 2311 3 5.717684492996876e-05 7.440836 4.295968 -44.7023 0 0 0
10279 2311 3 6.139029069290915e-05 7.440836 5.727814 -44.7023 0 0 0
9437 2311 3 -4.537863649561937e-06 1.240139 7.875927 -51.4645 0 0 0
9441 2311 3 -5.65118979601571e-06 3.720418 7.875927 -51.4645 0 0 0
9445 2311 3 -5.406875399850829e-06 6.200697 7.875927 -51.4645 0 0 0
9448 2311 3 -2.146614558658295e-06 0 8.591936 -51.4645 0 0 0
9449 2311 3 -4.4171507761776e-06 2.480279 8.591936 -51.4645 0 0 0
9450 2311 3 -4.912393609747192e-06 4.960558 8.591936 -51.4645 0 0 0
9451 2311 3 -4.727004159912179e-06 7.440836 8.591936 -51.4645 0 0 0
9475 2311 3 9.626579178924003e-07 2.480279 8.591936 -48.0833 0 0 0
9476 2311 3 2.591622330726001e-06 2.480279 7.159961 -48.0833 0 0 0
9479 2311 3 2.886301111813485e-06 4.960558 8.591936 -48.0833 0 0 0
9480 2311 3 2.597299087719595e-06 4.960558 7.159961 -48.0833 0 0 0
9483 2311 3 1.067440782566876e-05 7.440836 8.591936 -48.0833 0 0 0
9484 2311 3 6.802941083709689e-06 7.440836 7.159961 -48.0833 0 0 0
9487 2311 3 3.267474580849369e-06 0 8.591936 -48.0833 0 0 0
9488 2311 3 5.650705416711638e-06 0 7.159961 -48.0833 0 0 0
10269 2311 3 6.236979190981993e-05 1.240139 7.875927 -44.7023 0 0 0
10273 2311 3 6.642405839606957e-05 3.720418 7.875927 -44.7023 0 0 0
10277 2311 3 5.625951117931438e-05 6.200697 7.875927 -44.7023 0 0 0
10280 2311 3 2.712226264625049e-05 0 8.591936 -44.7023 0 0 0
10281 2311 3 5.506853056079271e-05 2.480279 8.591936 -44.7023 0 0 0
10282 2311 3 4.820337247106889e-05 4.960558 8.591936 -44.7023 0 0 0
10283 2311 3 4.939930358513664e-05 7.440836 8.591936 -44.7023 0 0 0
9452 2311 3 -3.037888178968072e-06 8.680976 2.147984 -51.4645 0 0 0
9453 2311 3 -3.79608837239267e-06 8.680976 3.579959 -51.4645 0 0 0
9454 2311 3 -4.40612656695433e-08 9.921115 0 -51.4645 0 0 0
9455 2311 3 -8.13264485665692e-07 9.921115 1.431975 -51.4645 0 0 0
9456 2311 3 -4.717834310711551e-06 8.680976 6.443952 -51.4645 0 0 0
9458 2311 3 -2.702650375884858e-06 9.921115 4.295968 -51.4645 0 0 0
9459 2311 3 -3.449181161312519e-06 9.921115 5.727943 -51.4645 0 0 0
9493 2311 3 -2.413891956916156e-06 9.921115 4.295968 -48.0833 0 0 0
9494 2311 3 -6.211765744037988e-06 9.921115 2.863993 -48.0833 0 0 0
9495 2311 3 -5.330567780247291e-06 8.680976 2.147984 -48.0833 0 0 0
9496 2311 3 -3.973074472907906e-06 8.680976 0.715966 -48.0833 0 0 0
9499 2311 3 6.283840591690934e-06 8.680976 6.443952 -48.0833 0 0 0
9500 2311 3 2.557314599331883e-07 8.680976 5.011934 -48.0833 0 0 0
9501 2311 3 -4.671287017808959e-06 9.921115 0 -48.0833 0 0 0
10284 2311 3 1.375940092970259e-05 8.680976 2.147984 -44.7023 0 0 0
10285 2311 3 2.913108227204453e-05 8.680976 3.579959 -44.7023 0 0 0
10286 2311 3 -3.289861859050531e-05 9.921115 0 -44.7023 0 0 0
10287 2311 3 -2.269856684192162e-05 9.921115 1.431846 -44.7023 0 0 0
10288 2311 3 5.244198401023374e-05 8.680976 6.443952 -44.7023 0 0 0
10290 2311 3 1.77028594929623e-05 9.921115 4.295968 -44.7023 0 0 0
10291 2311 3 3.509300058222164e-05 9.921115 5.727814 -44.7023 0 0 0
9502 2311 3 6.241620675375401e-07 11.161255 2.147984 -51.4645 0 0 0
9503 2311 3 -5.114787149989543e-07 11.161255 3.579959 -51.4645 0 0 0
9504 2311 3 4.091723160242237e-06 12.401394 0 -51.4645 0 0 0
9505 2311 3 3.174543484061015e-06 12.401394 1.431975 -51.4645 0 0 0
9506 2311 3 4.616394101322298e-06 13.641534 2.147984 -51.4645 0 0 0
9507 2311 3 3.429381720360169e-06 13.641534 3.579959 -51.4645 0 0 0
9508 2311 3 7.688687200625394e-06 14.881673 0 -51.4645 0 0 0
9509 2311 3 6.956026839597613e-06 14.881673 1.431975 -51.4645 0 0 0
9512 2311 3 -2.358900088344058e-06 11.161255 6.443952 -51.4645 0 0 0
9514 2311 3 8.000138734601313e-07 12.401394 4.295968 -51.4645 0 0 0
9515 2311 3 -2.455602841322719e-07 12.401394 5.727943 -51.4645 0 0 0
9516 2311 3 1.362085391932527e-06 13.641534 6.443952 -51.4645 0 0 0
9518 2311 3 4.915748491561098e-06 14.881673 4.295968 -51.4645 0 0 0
9519 2311 3 3.954399239220206e-06 14.881673 5.727943 -51.4645 0 0 0
9538 2311 3 -6.162210752839419e-07 12.401394 4.295968 -48.0833 0 0 0
9539 2311 3 -4.396975173524295e-06 12.401394 2.863993 -48.0833 0 0 0
9540 2311 3 -6.993356339025624e-06 11.161255 2.147984 -48.0833 0 0 0
9541 2311 3 -6.75597547498175e-06 11.161255 0.715966 -48.0833 0 0 0
9542 2311 3 2.754634346058338e-06 14.881673 4.295968 -48.0833 0 0 0
9543 2311 3 2.023913894326314e-06 14.881673 2.863993 -48.0833 0 0 0
9544 2311 3 -2.160442785207859e-06 13.641534 2.147984 -48.0833 0 0 0
9545 2311 3 -2.549480451047255e-06 13.641534 0.715966 -48.0833 0 0 0
9550 2311 3 9.180255816026315e-06 11.161255 6.443952 -48.0833 0 0 0
9551 2311 3 1.271599992985244e-06 11.161255 5.011934 -48.0833 0 0 0
9554 2311 3 8.968454113968041e-06 13.641534 6.443952 -48.0833 0 0 0
9555 2311 3 3.167745954383761e-06 13.641534 5.011934 -48.0833 0 0 0
9558 2311 3 -5.013758530750622e-06 12.401394 0 -48.0833 0 0 0
9559 2311 3 1.53631981051396e-06 14.881673 0 -48.0833 0 0 0
10293 2311 3 -3.954356223830899e-05 11.161255 2.147984 -44.7023 0 0 0
10294 2311 3 -1.465599575407763e-05 11.161255 3.579959 -44.7023 0 0 0
10295 2311 3 -9.421480711031248e-05 12.401394 0 -44.7023 0 0 0
10296 2311 3 -7.630710867204993e-05 12.401394 1.431846 -44.7023 0 0 0
10297 2311 3 -8.943550378545613e-05 13.641534 2.147984 -44.7023 0 0 0
10298 2311 3 -6.55874563112611e-05 13.641534 3.579959 -44.7023 0 0 0
10299 2311 3 -0.0001439397230489272 14.881673 0 -44.7023 0 0 0
10300 2311 3 -0.000125640343847993 14.881673 1.431846 -44.7023 0 0 0
10303 2311 3 2.25905664811464e-05 11.161255 6.443952 -44.7023 0 0 0
10305 2311 3 -2.666035857665248e-05 12.401394 4.295968 -44.7023 0 0 0
10306 2311 3 -9.395984579471539e-06 12.401394 5.727814 -44.7023 0 0 0
10307 2311 3 -3.884827300260403e-05 13.641534 6.443952 -44.7023 0 0 0
10309 2311 3 -8.87572742773985e-05 14.881673 4.295968 -44.7023 0 0 0
10310 2311 3 -7.993608314729951e-05 14.881673 5.727814 -44.7023 0 0 0
9457 2311 3 -4.623447048132802e-06 8.680976 7.875927 -51.4645 0 0 0
9460 2311 3 -3.859406486016597e-06 9.921115 8.591936 -51.4645 0 0 0
9497 2311 3 1.939973553801267e-05 9.921115 8.591936 -48.0833 0 0 0
9498 2311 3 1.197728336684037e-05 9.921115 7.159961 -48.0833 0 0 0
10289 2311 3 5.330502756067527e-05 8.680976 7.875927 -44.7023 0 0 0
10292 2311 3 4.546390886531449e-05 9.921115 8.591936 -44.7023 0 0 0
9513 2311 3 -2.782972084816604e-06 11.161255 7.875927 -51.4645 0 0 0
9517 2311 3 7.180445371295823e-07 13.641534 7.875927 -51.4645 0 0 0
9522 2311 3 -1.392074242630947e-06 12.401394 8.591936 -51.4645 0 0 0
9523 2311 3 2.610616049591568e-06 14.881673 8.591936 -51.4645 0 0 0
9548 2311 3 2.239849289308055e-05 12.401394 8.591936 -48.0833 0 0 0
9549 2311 3 1.386771666523268e-05 12.401394 7.159961 -48.0833 0 0 0
9552 2311 3 1.545401009371868e-05 14.881673 8.591936 -48.0833 0 0 0
9553 2311 3 9.433010180109781e-06 14.881673 7.159961 -48.0833 0 0 0
10304 2311 3 2.851916324918179e-05 11.161255 7.875927 -44.7023 0 0 0
10308 2311 3 -3.629200089985339e-05 13.641534 7.875927 -44.7023 0 0 0
10313 2311 3 1.010672246521983e-06 12.401394 8.591936 -44.7023 0 0 0
10314 2311 3 -7.549408621481447e-05 14.881673 8.591936 -44.7023 0 0 0
6925 2311 3 -0.0003757022112623224 0 0 -41.3215 0 0 0
6926 2311 3 -0.0004493934249088465 0 1.431975 -41.3215 0 0 0
6927 2311 3 -0.0004103671512324871 1.240139 2.147984 -41.3215 0 0 0
6928 2311 3 -0.000350053604066539 1.240139 3.579959 -41.3215 0 0 0
6929 2311 3 -0.0003448068619945493 2.480279 0 -41.3215 0 0 0
6930 2311 3 -0.000358564948997515 2.480279 1.431975 -41.3215 0 0 0
6931 2311 3 -0.0002806671928738518 3.720418 2.147984 -41.3215 0 0 0
6932 2311 3 -0.000237715988882036 3.720418 3.579959 -41.3215 0 0 0
6933 2311 3 -0.0002453072667136267 4.960558 0 -41.3215 0 0 0
6934 2311 3 -0.0002282574051281093 4.960558 1.431975 -41.3215 0 0 0
6935 2311 3 -0.0001415942371253042 6.200697 2.147984 -41.3215 0 0 0
6936 2311 3 -0.0001290744151653405 6.200697 3.579959 -41.3215 0 0 0
6937 2311 3 -8.645144678366615e-05 7.440836 0 -41.3215 0 0 0
6938 2311 3 -6.086063990522317e-05 7.440836 1.431975 -41.3215 0 0 0
6939 2311 3 -0.0003505164867774985 0 4.295968 -41.3215 0 0 0
6940 2311 3 -0.0002044076117017437 0 5.727943 -41.3215 0 0 0
6941 2311 3 -9.332549584562922e-05 1.240139 6.443952 -41.3215 0 0 0
6943 2311 3 -0.0002490905289300296 2.480279 4.295968 -41.3215 0 0 0
6944 2311 3 -0.0001487341362399925 2.480279 5.727943 -41.3215 0 0 0
6945 2311 3 -0.0001246339076205372 3.720418 6.443952 -41.3215 0 0 0
6947 2311 3 -0.0001772308910415033 4.960558 4.295968 -41.3215 0 0 0
6948 2311 3 -0.0001636040033044148 4.960558 5.727943 -41.3215 0 0 0
6949 2311 3 -0.0001782117677461302 6.200697 6.443952 -41.3215 0 0 0
6951 2311 3 -6.220789065349602e-05 7.440836 4.295968 -41.3215 0 0 0
6952 2311 3 -0.0001227101288122379 7.440836 5.727943 -41.3215 0 0 0
7341 2311 3 -0.001648420258558371 2.480279 4.295968 -37.9403 0 0 0
7342 2311 3 -0.001925721147966057 2.480279 2.863993 -37.9403 0 0 0
7343 2311 3 -0.001854412683705209 1.240139 2.147984 -37.9403 0 0 0
7344 2311 3 -0.00158086238004006 1.240139 0.715966 -37.9403 0 0 0
7349 2311 3 -0.001158245206984526 4.960558 4.295968 -37.9403 0 0 0
7350 2311 3 -0.001390166431943925 4.960558 2.863993 -37.9403 0 0 0
7351 2311 3 -0.001800866845818715 3.720418 2.147984 -37.9403 0 0 0
7352 2311 3 -0.001641598782136583 3.720418 0.715966 -37.9403 0 0 0
7357 2311 3 -0.000326281739594397 7.440836 4.295968 -37.9403 0 0 0
7358 2311 3 -0.0002697730346194369 7.440836 2.863993 -37.9403 0 0 0
7359 2311 3 -0.000888788655828755 6.200697 2.147984 -37.9403 0 0 0
7360 2311 3 -0.0009034217262607835 6.200697 0.715966 -37.9403 0 0 0
7367 2311 3 -0.001339749175205444 0 4.295968 -37.9403 0 0 0
7368 2311 3 -0.001604217342090171 0 2.863993 -37.9403 0 0 0
7371 2311 3 -0.0007957448414181176 1.240139 6.443952 -37.9403 0 0 0
7372 2311 3 -0.001340671007753766 1.240139 5.011934 -37.9403 0 0 0
7379 2311 3 -0.0007788537403537982 3.720418 6.443952 -37.9403 0 0 0
7380 2311 3 -0.001280346364322154 3.720418 5.011934 -37.9403 0 0 0
7387 2311 3 -0.0004966486671265855 6.200697 6.443952 -37.9403 0 0 0
7388 2311 3 -0.0006399643947153685 6.200697 5.011934 -37.9403 0 0 0
7401 2311 3 -0.001472699608876331 2.480279 0 -37.9403 0 0 0
7402 2311 3 -0.001284755649988694 4.960558 0 -37.9403 0 0 0
7403 2311 3 -0.0002900126846580833 7.440836 0 -37.9403 0 0 0
7404 2311 3 -0.001191583793470195 0 0 -37.9403 0 0 0
6942 2311 3 4.107417105463565e-05 1.240139 7.875927 -41.3215 0 0 0
6946 2311 3 -7.136332489166023e-05 3.720418 7.875927 -41.3215 0 0 0
6950 2311 3 -0.0002226326888275418 6.200697 7.875927 -41.3215 0 0 0
6953 2311 3 8.785834663574014e-05 0 8.591936 -41.3215 0 0 0
6954 2311 3 4.412374855750742e-05 2.480279 8.591936 -41.3215 0 0 0
6955 2311 3 -0.0001525902104080303 4.960558 8.591936 -41.3215 0 0 0
6956 2311 3 -0.0002947061839015153 7.440836 8.591936 -41.3215 0 0 0
7369 2311 3 -0.000391933240956777 2.480279 8.591936 -37.9403 0 0 0
7370 2311 3 -0.000620756101619292 2.480279 7.159961 -37.9403 0 0 0
7377 2311 3 -0.0002618011974480073 4.960558 8.591936 -37.9403 0 0 0
7378 2311 3 -0.0004623441621469348 4.960558 7.159961 -37.9403 0 0 0
7385 2311 3 -0.0007162820157983931 7.440836 8.591936 -37.9403 0 0 0
7386 2311 3 -0.0006239455036337655 7.440836 7.159961 -37.9403 0 0 0
7395 2311 3 -0.0002296434615701038 0 8.591936 -37.9403 0 0 0
7396 2311 3 -0.0004146337011423645 0 7.159961 -37.9403 0 0 0
6957 2311 3 6.047479518889587e-05 8.680976 2.147984 -41.3215 0 0 0
6958 2311 3 5.610561833765771e-05 8.680976 3.579959 -41.3215 0 0 0
6959 2311 3 0.0001322664544928083 9.921115 0 -41.3215 0 0 0
6960 2311 3 0.000166259289932953 9.921115 1.431975 -41.3215 0 0 0
6971 2311 3 -0.0001228613404024175 8.680976 6.443952 -41.3215 0 0 0
6973 2311 3 0.0001430599182559908 9.921115 4.295968 -41.3215 0 0 0
6974 2311 3 2.362633353056499e-05 9.921115 5.727943 -41.3215 0 0 0
7405 2311 3 9.756567359247325e-05 9.921115 4.295968 -37.9403 0 0 0
7406 2311 3 0.0005595665785381172 9.921115 2.863993 -37.9403 0 0 0
7407 2311 3 0.0002647495490383042 8.680976 2.147984 -37.9403 0 0 0
7408 2311 3 0.0002754892523973187 8.680976 0.715966 -37.9403 0 0 0
7435 2311 3 -0.0007350348826400511 8.680976 6.443952 -37.9403 0 0 0
7436 2311 3 -0.0002902190603726394 8.680976 5.011934 -37.9403 0 0 0
7464 2311 3 0.0007390567515392729 9.921115 0 -37.9403 0 0 0
6961 2311 3 0.0002820094913574166 11.161255 2.147984 -41.3215 0 0 0
6962 2311 3 0.0002770975580061224 11.161255 3.579959 -41.3215 0 0 0
6963 2311 3 0.000276884682708512 12.401394 0 -41.3215 0 0 0
6964 2311 3 0.0003208719839974351 12.401394 1.431975 -41.3215 0 0 0
6965 2311 3 0.0003406869538913347 13.641534 2.147984 -41.3215 0 0 0
6966 2311 3 0.0003577407111484995 13.641534 3.579959 -41.3215 0 0 0
6967 2311 3 0.0002063477741139995 14.881673 0 -41.3215 0 0 0
6968 2311 3 0.0002493667141442591 14.881673 1.431975 -41.3215 0 0 0
6975 2311 3 4.598802858255107e-06 11.161255 6.443952 -41.3215 0 0 0
6977 2311 3 0.0003122938772033203 12.401394 4.295968 -41.3215 0 0 0
6978 2311 3 0.0001686650084342393 12.401394 5.727943 -41.3215 0 0 0
6979 2311 3 0.0001095703440923082 13.641534 6.443952 -41.3215 0 0 0
6981 2311 3 0.0003169922481118334 14.881673 4.295968 -41.3215 0 0 0
6982 2311 3 0.0002373729641401922 14.881673 5.727943 -41.3215 0 0 0
7411 2311 3 0.0003294704715350902 12.401394 4.295968 -37.9403 0 0 0
7412 2311 3 0.0008191647175650322 12.401394 2.863993 -37.9403 0 0 0
7413 2311 3 0.0009579500123417331 11.161255 2.147984 -37.9403 0 0 0
7414 2311 3 0.0011595072606466 11.161255 0.715966 -37.9403 0 0 0
7419 2311 3 0.0006661556102467543 14.881673 4.295968 -37.9403 0 0 0
7420 2311 3 0.0007700966348311307 14.881673 2.863993 -37.9403 0 0 0
7421 2311 3 0.001005251374799243 13.641534 2.147984 -37.9403 0 0 0
7422 2311 3 0.001530201285218611 13.641534 0.715966 -37.9403 0 0 0
7441 2311 3 -0.0005471770903151462 11.161255 6.443952 -37.9403 0 0 0
7442 2311 3 -7.132003209452912e-05 11.161255 5.011934 -37.9403 0 0 0
7449 2311 3 0.0003429420484364 13.641534 6.443952 -37.9403 0 0 0
7450 2311 3 0.000344780290660422 13.641534 5.011934 -37.9403 0 0 0
7465 2311 3 0.001519874278603075 12.401394 0 -37.9403 0 0 0
7466 2311 3 0.001798359348383142 14.881673 0 -37.9403 0 0 0
6972 2311 3 -0.000261906696452667 8.680976 7.875927 -41.3215 0 0 0
6985 2311 3 -0.0003321994397321031 9.921115 8.591936 -41.3215 0 0 0
7433 2311 3 -0.001006956773195561 9.921115 8.591936 -37.9403 0 0 0
7434 2311 3 -0.0009443088093888525 9.921115 7.159961 -37.9403 0 0 0
6976 2311 3 -0.000222297682207496 11.161255 7.875927 -41.3215 0 0 0
6980 2311 3 -0.0001353703657904039 13.641534 7.875927 -41.3215 0 0 0
6986 2311 3 -0.0003131321427480584 12.401394 8.591936 -41.3215 0 0 0
6987 2311 3 -0.0001520406055222529 14.881673 8.591936 -41.3215 0 0 0
7439 2311 3 -8.139368096466969e-06 12.401394 8.591936 -37.9403 0 0 0
7440 2311 3 -0.000135807469305801 12.401394 7.159961 -37.9403 0 0 0
7447 2311 3 0.0008775206174400173 14.881673 8.591936 -37.9403 0 0 0
7448 2311 3 0.000933982963320431 14.881673 7.159961 -37.9403 0 0 0
7345 2311 3 0.01227348026037969 0 0 -34.5593 0 0 0
7346 2311 3 0.01088125357375258 0 1.431846 -34.5593 0 0 0
7347 2311 3 0.006757795917626843 1.240139 2.147984 -34.5593 0 0 0
7348 2311 3 0.004538863057060248 1.240139 3.579959 -34.5593 0 0 0
7353 2311 3 0.01096263732557034 2.480279 0 -34.5593 0 0 0
7354 2311 3 0.004651790042749748 2.480279 1.431846 -34.5593 0 0 0
7355 2311 3 0.0002047719504312947 3.720418 2.147984 -34.5593 0 0 0
7356 2311 3 -0.0003929298826819796 3.720418 3.579959 -34.5593 0 0 0
7361 2311 3 0.0005530097781681423 4.960558 0 -34.5593 0 0 0
7362 2311 3 0.0009591942446006521 4.960558 1.431846 -34.5593 0 0 0
7363 2311 3 0.003285867480665403 6.200697 2.147984 -34.5593 0 0 0
7364 2311 3 0.004606827027415614 6.200697 3.579959 -34.5593 0 0 0
7365 2311 3 0.002466625835542526 7.440836 0 -34.5593 0 0 0
7366 2311 3 0.003547297693048256 7.440836 1.431846 -34.5593 0 0 0
7373 2311 3 0.007088952632877712 0 4.295968 -34.5593 0 0 0
7374 2311 3 0.005053452457058231 0 5.727814 -34.5593 0 0 0
7375 2311 3 0.003148184796245819 1.240139 6.443952 -34.5593 0 0 0
7381 2311 3 0.001536054436699601 2.480279 4.295968 -34.5593 0 0 0
7382 2311 3 0.002698617472720878 2.480279 5.727814 -34.5593 0 0 0
7383 2311 3 0.003892624339334009 3.720418 6.443952 -34.5593 0 0 0
7389 2311 3 0.001759034340357974 4.960558 4.295968 -34.5593 0 0 0
7390 2311 3 0.004918743863083399 4.960558 5.727814 -34.5593 0 0 0
7391 2311 3 0.01194548775143569 6.200697 6.443952 -34.5593 0 0 0
7393 2311 3 0.006748378759845093 7.440836 4.295968 -34.5593 0 0 0
7394 2311 3 0.008274633469822585 7.440836 5.727814 -34.5593 0 0 0
7376 2311 3 0.0006614079584438737 1.240139 7.875927 -34.5593 0 0 0
7384 2311 3 0.005718940917640139 3.720418 7.875927 -34.5593 0 0 0
7392 2311 3 0.0145367164101179 6.200697 7.875927 -34.5593 0 0 0
7397 2311 3 -0.005378482274021676 0 8.591936 -34.5593 0 0 0
7398 2311 3 0.0003973184311386773 2.480279 8.591936 -34.5593 0 0 0
7399 2311 3 0.009454701515808206 4.960558 8.591936 -34.5593 0 0 0
7400 2311 3 0.01076458990531964 7.440836 8.591936 -34.5593 0 0 0
7409 2311 3 0.003266589999383595 8.680976 2.147984 -34.5593 0 0 0
7410 2311 3 0.00411567643272969 8.680976 3.579959 -34.5593 0 0 0
7415 2311 3 0.0001122935545274653 9.921115 0 -34.5593 0 0 0
7416 2311 3 -7.730509392392873e-05 9.921115 1.431846 -34.5593 0 0 0
7437 2311 3 -0.003190785783223184 8.680976 6.443952 -34.5593 0 0 0
7443 2311 3 -0.001675740875149989 9.921115 4.295968 -34.5593 0 0 0
7444 2311 3 -0.008979593988961138 9.921115 5.727814 -34.5593 0 0 0
7417 2311 3 -0.003196553722667911 11.161255 2.147984 -34.5593 0 0 0
7418 2311 3 -0.004899024255316474 11.161255 3.579959 -34.5593 0 0 0
7423 2311 3 -0.002420772324543391 12.401394 0 -34.5593 0 0 0
7424 2311 3 -0.005450379161607078 12.401394 1.431846 -34.5593 0 0 0
7425 2311 3 -0.01369137312840526 13.641534 2.147984 -34.5593 0 0 0
7426 2311 3 -0.01989549527496384 13.641534 3.579959 -34.5593 0 0 0
7429 2311 3 -0.0005408148349599325 14.881673 0 -34.5593 0 0 0
7430 2311 3 -0.01164116488817564 14.881673 1.431846 -34.5593 0 0 0
7445 2311 3 -0.01165696410514338 11.161255 6.443952 -34.5593 0 0 0
7451 2311 3 -0.01289463891581252 12.401394 4.295968 -34.5593 0 0 0
7452 2311 3 -0.01482140178391064 12.401394 5.727814 -34.5593 0 0 0
7453 2311 3 -0.01020895359903019 13.641534 6.443952 -34.5593 0 0 0
7457 2311 3 -0.02329870707579292 14.881673 4.295968 -34.5593 0 0 0
7458 2311 3 -0.01102816652823714 14.881673 5.727814 -34.5593 0 0 0
7438 2311 3 -0.001736233171223319 8.680976 7.875927 -34.5593 0 0 0
7461 2311 3 -0.00028865204779515 9.921115 8.591936 -34.5593 0 0 0
7446 2311 3 -8.357154155518767e-05 11.161255 7.875927 -34.5593 0 0 0
7454 2311 3 0.006557640304063965 13.641534 7.875927 -34.5593 0 0 0
7462 2311 3 0.01662182788416825 12.401394 8.591936 -34.5593 0 0 0
7463 2311 3 0.008559336405214004 14.881673 8.591936 -34.5593 0 0 0
4538 1513 2 0.4238 12.37393774598849 6.326077077585214 -27.49191421217993 -2 -2 0
4537 1513 1 -0.8476 12.255045981004303 7.127919613536323 -26.906326220706024 -2 -2 0
4539 1513 2 0.4238 11.5004406046072 7.684974694405733 -27.253111979915023 -2 -2 0
2733 911 2 0.4238 7.676537007929495 6.970530773850052 -26.668908034460312 1 -10 0
221 74 2 0.4238 6.2739706718605115 2.0153381537782584 -30.937016922838854 2 -1 0
1059 353 2 0.4238 5.967235155228072 7.481089677391741 -31.150439510062753 6 0 0
1191 397 2 0.4238 10.575529042748252 1.3458989630991178 -30.265913722475318 -2 -6 0
1057 353 1 -0.8476 6.9456965457262605 7.302015312922332 -31.253131667963096 6 0 0
1189 397 1 -0.8476 11.29250823463432 1.9890011127690481 -29.99691471970335 -2 -6 0
220 74 1 -0.8476 7.14749459387548 2.500843074900008 -30.901790097348186 2 -1 0
780 260 2 0.4238 3.659600947452876 4.272329810467539 -28.70531978274632 -3 6 0
222 74 2 0.4238 7.872417295568295 1.8640324803690398 -30.639188986795496 2 -1 0
5436 1812 2 0.4238 13.902363912167706 2.7501520069974474 -27.16071898723208 0 0 0
3479 1160 2 0.4238 6.801094688571805 4.413601233169107 -28.19885957642847 0 2 0
5009 1670 2 0.4238 9.320429561717349 3.2621959124383553 -28.136683637028366 -6 -7 0
5008 1670 1 -0.8476 10.210203602190417 2.999933116806558 -27.763159363482952 -6 -7 0
3478 1160 1 -0.8476 7.484909550665567 3.6891715577273057 -28.28603112981016 0 2 0
1996 666 1 -0.8476 4.72468912346773 1.3506523084645046 -28.277974740187982 2 3 0
3661 1221 1 -0.8476 2.5363545977161777 7.159939550355389 -28.52387922919962 1 -4 0
3663 1221 2 0.4238 2.525097285828128 6.620312040277652 -29.365707847919815 1 -4 0
3957 1319 2 0.4238 13.208269742918864 6.154974697902175 -31.796501116245327 -2 -2 0
3480 1160 2 0.4238 7.4961396387858725 3.3529871704642638 -29.227760359940238 0 2 0
778 260 1 -0.8476 3.1570711098877737 3.4382811350059117 -28.4776652872548 -3 6 0
1997 666 2 0.4238 4.095187502177161 0.6271539568625514 -27.994641289953453 2 3 0
779 260 2 0.4238 3.803725364424504 2.7158397317480465 -28.23288641980838 -3 6 0
3955 1319 1 -0.8476 13.80083866717468 6.156134474755778 -30.990982199692805 -2 -2 0
3956 1319 2 0.4238 13.29171086168423 5.811810792732689 -30.20216658139247 -2 -2 0
3662 1221 2 0.4238 2.1004897143550396 6.640316320625759 -27.789023119081502 1 -4 0
6164 2055 2 0.4238 11.08671058491176 3.5220576607763103 -30.75083962226424 4 0 0
4011 1337 2 0.4238 6.873810133729943 6.2820713960075265 -28.679964930335274 2 4 0
6163 2055 1 -0.8476 10.802071795384945 4.480171577670438 -30.71924086041345 4 0 0
4009 1337 1 -0.8476 7.778912489241991 6.64995772706091 -28.466776343702143 2 4 0
6165 2055 2 0.4238 9.805212398161892 4.533827857961591 -30.777484707757278 4 0 0
4010 1337 2 0.4238 8.384754085952736 6.520318189712138 -29.25172828493866 2 4 0
1190 397 2 0.4238 11.099843438264353 2.338569429515032 -29.08002744846053 -2 -6 0
6071 2024 2 0.4238 12.702260399660867 4.575020092478127 -28.08625800468507 1 -5 0
847 283 1 -0.8476 14.245135242146715 0.5271046456136554 -30.097323112878772 0 4 0
3944 1315 2 0.4238 4.67980069175983 1.1182589219985481 -30.02430855582524 1 -2 0
6070 2024 1 -0.8476 12.554615274796408 5.252480391108774 -28.80684697274039 1 -5 0
6072 2024 2 0.4238 11.77916020148634 4.973169087936838 -29.3731107144704 1 -5 0
5348 1783 2 0.4238 15.185578997664319 3.3279524081372727 -32.23994984903187 2 2 0
849 283 2 0.4238 14.510588992770023 0.8815988785746454 -29.200736170592965 0 4 0
2538 846 2 0.4238 3.1286116672102042 2.4575234270161146 -31.29742887923921 -2 -2 0
2475 825 2 0.4238 14.594770589607778 6.834220638272284 -26.769253837678168 6 0 0
5450 1817 2 0.4238 7.704399573109866 4.155546498689502 -30.925415796926345 -5 -2 0
848 283 2 0.4238 13.518877889112673 1.0982468183905865 -30.47987621460406 0 4 0
1568 523 2 0.4238 2.3454839134875347 4.622965139532826 -31.015115534336186 0 0 0
2536 846 1 -0.8476 2.3771314451860595 2.983814599046626 -30.899565739266063 -2 -2 0
5449 1817 1 -0.8476 8.245614691519352 4.994377871771641 -30.866695075386648 -5 -2 0
6851 2284 2 0.4238 3.9257592493053304 6.787431669870716 -31.339418419226977 -2 -1 0
1567 523 1 -0.8476 2.2078910849879754 5.599446551523815 -30.849126782965566 0 0 0
3890 1297 2 0.4238 4.691822719163053 6.405670671548776 -28.91029801107446 4 3 0
2537 846 2 0.4238 2.539122904881564 3.108424850100614 -29.920672970716826 -2 -2 0
3889 1297 1 -0.8476 5.199684795668533 5.585780859583041 -28.645993626921772 4 3 0
5010 1670 2 0.4238 10.364333261703665 3.4810501196214565 -26.900158507364754 -6 -7 0
5451 1817 2 0.4238 7.644285000767556 5.786847775556681 -30.96864631184449 -5 -2 0
3891 1297 2 0.4238 4.950687717757532 5.32576126630236 -27.71304654037188 4 3 0
3943 1315 1 -0.8476 4.595182430106299 0.9245287799175582 -31.00170733925195 1 -2 0
1998 666 2 0.4238 5.352429099645705 1.5588967421992292 -27.527923556516775 2 3 0
1839 613 2 0.4238 7.29872265954525 2.35226081000993 -26.5397989609726 0 1 0
5434 1812 1 -0.8476 14.012145611486567 1.7676725008131786 -27.311324426783848 0 0 0
4170 1390 2 0.4238 15.401891549782908 1.4403578759960065 -26.29010238850319 -6 -5 0
1569 523 2 0.4238 1.2444461358436916 5.82861882783626 -30.987885197982973 0 0 0
1535 512 2 0.4238 0.5502811785313142 2.6895994260912794 -31.052262997247336 1 0 0
1513 505 1 -0.8476 10.410848299026227 7.17810029146746 -31.399592146668144 -3 2 0
3340 1114 1 -0.8476 13.32252418545884 4.14189592339659 -26.369277517349566 -2 3 0
6616 2206 1 -0.8476 1.3663455872073893 5.328984485120782 -26.77318698876063 -3 -5 0
5349 1783 2 0.4238 14.78620093023607 4.486655723378547 -31.16081580655029 2 2 0
1514 505 2 0.4238 10.656002584251356 6.224395916676691 -31.225387261717387 -3 2 0
3323 1108 2 0.4238 1.3138958858706893 8.52649751741787 -28.71443401258981 -2 -4 0
6852 2284 2 0.4238 3.383969729159748 8.305245598489376 -31.076109685820573 -2 -1 0
5435 1812 2 0.4238 13.163092021148055 1.296815915880915 -27.07173712086133 0 0 0
3815 1272 2 0.4238 11.1929079623137 1.4446618681932906 -26.745539883512347 6 2 0
1515 505 2 0.4238 9.813872204230703 7.227878657904511 -32.20030536404222 -3 2 0
6617 2206 2 0.4238 1.7124417959308305 4.3949124092468 -26.86108904436651 -3 -5 0
5347 1783 1 -0.8476 15.171457135901255 3.5703120780271633 -31.269866160151775 2 2 0